<?xml version="1.0" encoding="UTF-8"?>

<!-- generated on 2023-06-22 02:39:13 by Eclipse SUMO sumo Version 1.16.0
<configuration xmlns:xsi="http://www.w3.org/2001/XMLSchema-instance" xsi:noNamespaceSchemaLocation="http://sumo.dlr.de/xsd/sumoConfiguration.xsd">

    <input>
        <net-file value="osm.netbaseline.xml.gz"/>
        <route-files value="osm.delivery1.rou.xml, osm_pt.rou.xml,osm.bicycle.rou.xml,osm.bus_manual.rou.xml,osm.deliveryrandom.rou.xml,osm.flow_adicional.rou.xml,osm.motorcycle.rou.xml,osm.passenger.rou.xml,osm.pedestrian.rou.xml,osm.truck.rou.xml"/>
        <additional-files value="osm_stops.add.xml, osm.poly.xml.gz"/>
    </input>

    <output>
        <human-readable-time value="true"/>
        <emission-output value="emissions.xml"/>
        <tripinfo-output value="tripinfo.xml"/>
        <tripinfo-output.write-unfinished value="true"/>
    </output>

    <processing>
        <ignore-route-errors value="true"/>
    </processing>

    <routing>
        <device.rerouting.adaptation-steps value="18"/>
        <device.rerouting.adaptation-interval value="10"/>
    </routing>

    <report>
        <verbose value="true"/>
        <duration-log.statistics value="true"/>
        <no-step-log value="true"/>
    </report>

    <emissions>
        <device.emissions.probability value="0"/>
    </emissions>

    <tripinfo_device>
        <device.tripinfo.probability value="0"/>
    </tripinfo_device>

    <gui_only>
        <gui-settings-file value="osm.view.xml"/>
    </gui_only>

</configuration>
-->

<emission-export xmlns:xsi="http://www.w3.org/2001/XMLSchema-instance" xsi:noNamespaceSchemaLocation="http://sumo.dlr.de/xsd/emission_file.xsd">
    <timestep time="00:00:00"/>
    <timestep time="00:00:01"/>
    <timestep time="00:00:02"/>
    <timestep time="00:00:03"/>
    <timestep time="00:00:04"/>
    <timestep time="00:00:05"/>
    <timestep time="00:00:06"/>
    <timestep time="00:00:07"/>
    <timestep time="00:00:08"/>
    <timestep time="00:00:09"/>
    <timestep time="00:00:10"/>
    <timestep time="00:00:11"/>
    <timestep time="00:00:12"/>
    <timestep time="00:00:13"/>
    <timestep time="00:00:14"/>
    <timestep time="00:00:15"/>
    <timestep time="00:00:16"/>
    <timestep time="00:00:17"/>
    <timestep time="00:00:18"/>
    <timestep time="00:00:19"/>
    <timestep time="00:00:20"/>
    <timestep time="00:00:21"/>
    <timestep time="00:00:22"/>
    <timestep time="00:00:23"/>
    <timestep time="00:00:24"/>
    <timestep time="00:00:25"/>
    <timestep time="00:00:26"/>
    <timestep time="00:00:27"/>
    <timestep time="00:00:28"/>
    <timestep time="00:00:29"/>
    <timestep time="00:00:30"/>
    <timestep time="00:00:31"/>
    <timestep time="00:00:32"/>
    <timestep time="00:00:33"/>
    <timestep time="00:00:34"/>
    <timestep time="00:00:35"/>
    <timestep time="00:00:36"/>
    <timestep time="00:00:37"/>
    <timestep time="00:00:38"/>
    <timestep time="00:00:39"/>
    <timestep time="00:00:40"/>
    <timestep time="00:00:41"/>
    <timestep time="00:00:42"/>
    <timestep time="00:00:43"/>
    <timestep time="00:00:44"/>
    <timestep time="00:00:45"/>
    <timestep time="00:00:46"/>
    <timestep time="00:00:47"/>
    <timestep time="00:00:48"/>
    <timestep time="00:00:49"/>
    <timestep time="00:00:50"/>
    <timestep time="00:00:51"/>
    <timestep time="00:00:52"/>
    <timestep time="00:00:53"/>
    <timestep time="00:00:54"/>
    <timestep time="00:00:55"/>
    <timestep time="00:00:56"/>
    <timestep time="00:00:57"/>
    <timestep time="00:00:58"/>
    <timestep time="00:00:59"/>
    <timestep time="00:01:00"/>
    <timestep time="00:01:01"/>
    <timestep time="00:01:02"/>
    <timestep time="00:01:03"/>
    <timestep time="00:01:04"/>
    <timestep time="00:01:05"/>
    <timestep time="00:01:06"/>
    <timestep time="00:01:07"/>
    <timestep time="00:01:08"/>
    <timestep time="00:01:09"/>
    <timestep time="00:01:10"/>
    <timestep time="00:01:11"/>
    <timestep time="00:01:12"/>
    <timestep time="00:01:13"/>
    <timestep time="00:01:14"/>
    <timestep time="00:01:15"/>
    <timestep time="00:01:16"/>
    <timestep time="00:01:17"/>
    <timestep time="00:01:18"/>
    <timestep time="00:01:19"/>
    <timestep time="00:01:20"/>
    <timestep time="00:01:21"/>
    <timestep time="00:01:22"/>
    <timestep time="00:01:23"/>
    <timestep time="00:01:24"/>
    <timestep time="00:01:25"/>
    <timestep time="00:01:26"/>
    <timestep time="00:01:27"/>
    <timestep time="00:01:28"/>
    <timestep time="00:01:29"/>
    <timestep time="00:01:30"/>
    <timestep time="00:01:31"/>
    <timestep time="00:01:32"/>
    <timestep time="00:01:33"/>
    <timestep time="00:01:34"/>
    <timestep time="00:01:35"/>
    <timestep time="00:01:36"/>
    <timestep time="00:01:37"/>
    <timestep time="00:01:38"/>
    <timestep time="00:01:39"/>
    <timestep time="00:01:40"/>
    <timestep time="00:01:41"/>
    <timestep time="00:01:42"/>
    <timestep time="00:01:43"/>
    <timestep time="00:01:44"/>
    <timestep time="00:01:45"/>
    <timestep time="00:01:46"/>
    <timestep time="00:01:47"/>
    <timestep time="00:01:48"/>
    <timestep time="00:01:49"/>
    <timestep time="00:01:50"/>
    <timestep time="00:01:51"/>
    <timestep time="00:01:52"/>
    <timestep time="00:01:53"/>
    <timestep time="00:01:54"/>
    <timestep time="00:01:55"/>
    <timestep time="00:01:56"/>
    <timestep time="00:01:57"/>
    <timestep time="00:01:58"/>
    <timestep time="00:01:59"/>
    <timestep time="00:02:00"/>
    <timestep time="00:02:01"/>
    <timestep time="00:02:02"/>
    <timestep time="00:02:03"/>
    <timestep time="00:02:04"/>
    <timestep time="00:02:05"/>
    <timestep time="00:02:06"/>
    <timestep time="00:02:07"/>
    <timestep time="00:02:08"/>
    <timestep time="00:02:09"/>
    <timestep time="00:02:10"/>
    <timestep time="00:02:11"/>
    <timestep time="00:02:12"/>
    <timestep time="00:02:13"/>
    <timestep time="00:02:14"/>
    <timestep time="00:02:15"/>
    <timestep time="00:02:16"/>
    <timestep time="00:02:17"/>
    <timestep time="00:02:18"/>
    <timestep time="00:02:19"/>
    <timestep time="00:02:20"/>
    <timestep time="00:02:21"/>
    <timestep time="00:02:22"/>
    <timestep time="00:02:23"/>
    <timestep time="00:02:24"/>
    <timestep time="00:02:25"/>
    <timestep time="00:02:26"/>
    <timestep time="00:02:27"/>
    <timestep time="00:02:28"/>
    <timestep time="00:02:29"/>
    <timestep time="00:02:30"/>
    <timestep time="00:02:31"/>
    <timestep time="00:02:32"/>
    <timestep time="00:02:33"/>
    <timestep time="00:02:34"/>
    <timestep time="00:02:35"/>
    <timestep time="00:02:36"/>
    <timestep time="00:02:37"/>
    <timestep time="00:02:38"/>
    <timestep time="00:02:39"/>
    <timestep time="00:02:40"/>
    <timestep time="00:02:41"/>
    <timestep time="00:02:42"/>
    <timestep time="00:02:43"/>
    <timestep time="00:02:44"/>
    <timestep time="00:02:45"/>
    <timestep time="00:02:46"/>
    <timestep time="00:02:47"/>
    <timestep time="00:02:48"/>
    <timestep time="00:02:49"/>
    <timestep time="00:02:50"/>
    <timestep time="00:02:51"/>
    <timestep time="00:02:52"/>
    <timestep time="00:02:53"/>
    <timestep time="00:02:54"/>
    <timestep time="00:02:55"/>
    <timestep time="00:02:56"/>
    <timestep time="00:02:57"/>
    <timestep time="00:02:58"/>
    <timestep time="00:02:59"/>
    <timestep time="00:03:00"/>
    <timestep time="00:03:01"/>
    <timestep time="00:03:02"/>
    <timestep time="00:03:03"/>
    <timestep time="00:03:04"/>
    <timestep time="00:03:05"/>
    <timestep time="00:03:06"/>
    <timestep time="00:03:07"/>
    <timestep time="00:03:08"/>
    <timestep time="00:03:09"/>
    <timestep time="00:03:10"/>
    <timestep time="00:03:11"/>
    <timestep time="00:03:12"/>
    <timestep time="00:03:13"/>
    <timestep time="00:03:14"/>
    <timestep time="00:03:15"/>
    <timestep time="00:03:16"/>
    <timestep time="00:03:17"/>
    <timestep time="00:03:18"/>
    <timestep time="00:03:19"/>
    <timestep time="00:03:20"/>
    <timestep time="00:03:21"/>
    <timestep time="00:03:22"/>
    <timestep time="00:03:23"/>
    <timestep time="00:03:24"/>
    <timestep time="00:03:25"/>
    <timestep time="00:03:26"/>
    <timestep time="00:03:27"/>
    <timestep time="00:03:28"/>
    <timestep time="00:03:29"/>
    <timestep time="00:03:30"/>
    <timestep time="00:03:31"/>
    <timestep time="00:03:32"/>
    <timestep time="00:03:33"/>
    <timestep time="00:03:34"/>
    <timestep time="00:03:35"/>
    <timestep time="00:03:36"/>
    <timestep time="00:03:37"/>
    <timestep time="00:03:38"/>
    <timestep time="00:03:39"/>
    <timestep time="00:03:40"/>
    <timestep time="00:03:41"/>
    <timestep time="00:03:42"/>
    <timestep time="00:03:43"/>
    <timestep time="00:03:44"/>
    <timestep time="00:03:45"/>
    <timestep time="00:03:46"/>
    <timestep time="00:03:47"/>
    <timestep time="00:03:48"/>
    <timestep time="00:03:49"/>
    <timestep time="00:03:50"/>
    <timestep time="00:03:51"/>
    <timestep time="00:03:52"/>
    <timestep time="00:03:53"/>
    <timestep time="00:03:54"/>
    <timestep time="00:03:55"/>
    <timestep time="00:03:56"/>
    <timestep time="00:03:57"/>
    <timestep time="00:03:58"/>
    <timestep time="00:03:59"/>
    <timestep time="00:04:00"/>
    <timestep time="00:04:01"/>
    <timestep time="00:04:02"/>
    <timestep time="00:04:03"/>
    <timestep time="00:04:04"/>
    <timestep time="00:04:05"/>
    <timestep time="00:04:06"/>
    <timestep time="00:04:07"/>
    <timestep time="00:04:08"/>
    <timestep time="00:04:09"/>
    <timestep time="00:04:10"/>
    <timestep time="00:04:11"/>
    <timestep time="00:04:12"/>
    <timestep time="00:04:13"/>
    <timestep time="00:04:14"/>
    <timestep time="00:04:15"/>
    <timestep time="00:04:16"/>
    <timestep time="00:04:17"/>
    <timestep time="00:04:18"/>
    <timestep time="00:04:19"/>
    <timestep time="00:04:20"/>
    <timestep time="00:04:21"/>
    <timestep time="00:04:22"/>
    <timestep time="00:04:23"/>
    <timestep time="00:04:24"/>
    <timestep time="00:04:25"/>
    <timestep time="00:04:26"/>
    <timestep time="00:04:27"/>
    <timestep time="00:04:28"/>
    <timestep time="00:04:29"/>
    <timestep time="00:04:30"/>
    <timestep time="00:04:31"/>
    <timestep time="00:04:32"/>
    <timestep time="00:04:33"/>
    <timestep time="00:04:34"/>
    <timestep time="00:04:35"/>
    <timestep time="00:04:36"/>
    <timestep time="00:04:37"/>
    <timestep time="00:04:38"/>
    <timestep time="00:04:39"/>
    <timestep time="00:04:40"/>
    <timestep time="00:04:41"/>
    <timestep time="00:04:42"/>
    <timestep time="00:04:43"/>
    <timestep time="00:04:44"/>
    <timestep time="00:04:45"/>
    <timestep time="00:04:46"/>
    <timestep time="00:04:47"/>
    <timestep time="00:04:48"/>
    <timestep time="00:04:49"/>
    <timestep time="00:04:50"/>
    <timestep time="00:04:51"/>
    <timestep time="00:04:52"/>
    <timestep time="00:04:53"/>
    <timestep time="00:04:54"/>
    <timestep time="00:04:55"/>
    <timestep time="00:04:56"/>
    <timestep time="00:04:57"/>
    <timestep time="00:04:58"/>
    <timestep time="00:04:59"/>
    <timestep time="00:05:00">
        <vehicle id="circuito_ice" eclass="HBEFA4/LCV_diesel_N1-III_Euro-6d" CO2="1754.00" CO="0.10" HC="0.09" NOx="0.16" PMx="0.00" fuel="563.60" electricity="0.00" noise="55.94" route="!circuito_ice!var#1" type="carrinha_ice" waiting="0.00" lane="E3_1" pos="4.85" speed="0.00" angle="177.50" x="-1.78" y="769.56"/>
    </timestep>
    <timestep time="00:05:01">
        <vehicle id="circuito_ice" eclass="HBEFA4/LCV_diesel_N1-III_Euro-6d" CO2="3509.95" CO="0.87" HC="1.13" NOx="0.28" PMx="0.63" fuel="1127.96" electricity="0.00" noise="66.61" route="!circuito_ice!var#1" type="carrinha_ice" waiting="0.00" lane="E3_1" pos="7.08" speed="2.23" angle="177.50" x="-1.68" y="767.33"/>
    </timestep>
    <timestep time="00:05:02">
        <vehicle id="circuito_ice" eclass="HBEFA4/LCV_diesel_N1-III_Euro-6d" CO2="3358.17" CO="0.72" HC="0.93" NOx="0.34" PMx="0.52" fuel="1079.19" electricity="0.00" noise="65.35" route="!circuito_ice!var#1" type="carrinha_ice" waiting="0.00" lane="E3_1" pos="11.09" speed="4.00" angle="177.50" x="-1.51" y="763.33"/>
    </timestep>
    <timestep time="00:05:03">
        <vehicle id="circuito_ice" eclass="HBEFA4/LCV_diesel_N1-III_Euro-6d" CO2="3569.87" CO="0.73" HC="0.95" NOx="0.42" PMx="0.53" fuel="1147.24" electricity="0.00" noise="66.14" route="!circuito_ice!var#1" type="carrinha_ice" waiting="0.00" lane="E3_1" pos="16.86" speed="5.78" angle="177.50" x="-1.26" y="757.56"/>
    </timestep>
    <timestep time="00:05:04">
        <vehicle id="circuito_ice" eclass="HBEFA4/LCV_diesel_N1-III_Euro-6d" CO2="4367.79" CO="0.89" HC="1.18" NOx="0.61" PMx="0.67" fuel="1403.72" electricity="0.00" noise="69.14" route="!circuito_ice!var#1" type="carrinha_ice" waiting="0.00" lane="E3_1" pos="24.88" speed="8.01" angle="177.50" x="-0.91" y="749.56"/>
    </timestep>
    <timestep time="00:05:05">
        <vehicle id="circuito_ice" eclass="HBEFA4/LCV_diesel_N1-III_Euro-6d" CO2="3843.10" CO="0.69" HC="0.89" NOx="0.58" PMx="0.51" fuel="1235.08" electricity="0.00" noise="67.31" route="!circuito_ice!var#1" type="carrinha_ice" waiting="0.00" lane="E3_1" pos="34.50" speed="9.62" angle="177.50" x="-0.49" y="739.96"/>
    </timestep>
    <timestep time="00:05:06">
        <vehicle id="circuito_ice" eclass="HBEFA4/LCV_diesel_N1-III_Euro-6d" CO2="4996.29" CO="0.91" HC="1.21" NOx="0.87" PMx="0.70" fuel="1605.75" electricity="0.00" noise="71.01" route="!circuito_ice!var#1" type="carrinha_ice" waiting="0.00" lane="E3_1" pos="46.36" speed="11.86" angle="177.50" x="0.03" y="728.12"/>
    </timestep>
    <timestep time="00:05:07">
        <vehicle id="circuito_ice" eclass="HBEFA4/LCV_diesel_N1-III_Euro-6d" CO2="4578.87" CO="0.76" HC="1.00" NOx="0.84" PMx="0.59" fuel="1471.59" electricity="0.00" noise="70.03" route="!circuito_ice!var#1" type="carrinha_ice" waiting="0.00" lane="E3_1" pos="59.98" speed="13.63" angle="177.50" x="0.62" y="714.51"/>
    </timestep>
    <timestep time="00:05:08">
        <vehicle id="circuito_ice" eclass="HBEFA4/LCV_diesel_N1-III_Euro-6d" CO2="2451.73" CO="0.28" HC="0.32" NOx="0.39" PMx="0.20" fuel="787.86" electricity="0.00" noise="65.54" route="!circuito_ice!var#1" type="carrinha_ice" waiting="0.00" lane="E3_1" pos="73.97" speed="13.99" angle="177.50" x="1.23" y="700.55"/>
    </timestep>
    <timestep time="00:05:09">
        <vehicle id="circuito_ice" eclass="HBEFA4/LCV_diesel_N1-III_Euro-6d" CO2="0.00" CO="0.00" HC="0.00" NOx="0.00" PMx="0.00" fuel="0.00" electricity="0.00" noise="58.44" route="!circuito_ice!var#1" type="carrinha_ice" waiting="0.00" lane="E3_1" pos="84.90" speed="10.93" angle="177.50" x="1.71" y="689.64"/>
    </timestep>
    <timestep time="00:05:10">
        <vehicle id="circuito_ice" eclass="HBEFA4/LCV_diesel_N1-III_Euro-6d" CO2="0.00" CO="0.00" HC="0.00" NOx="0.00" PMx="0.00" fuel="0.00" electricity="0.00" noise="53.36" route="!circuito_ice!var#1" type="carrinha_ice" waiting="0.00" lane="E3_1" pos="92.23" speed="7.33" angle="177.50" x="2.03" y="682.33"/>
    </timestep>
    <timestep time="00:05:11">
        <vehicle id="circuito_ice" eclass="HBEFA4/LCV_diesel_N1-III_Euro-6d" CO2="0.00" CO="0.00" HC="0.00" NOx="0.00" PMx="0.00" fuel="0.00" electricity="0.00" noise="46.38" route="!circuito_ice!var#1" type="carrinha_ice" waiting="0.00" lane="E3_1" pos="95.95" speed="3.73" angle="177.50" x="2.19" y="678.60"/>
    </timestep>
    <timestep time="00:05:12">
        <vehicle id="circuito_ice" eclass="HBEFA4/LCV_diesel_N1-III_Euro-6d" CO2="3364.96" CO="0.67" HC="0.87" NOx="0.38" PMx="0.48" fuel="1081.38" electricity="0.00" noise="65.26" route="!circuito_ice!var#1" type="carrinha_ice" waiting="0.00" lane=":J5_4_0" pos="4.15" speed="5.34" angle="163.21" x="3.56" y="673.56"/>
    </timestep>
    <timestep time="00:05:13">
        <vehicle id="circuito_ice" eclass="HBEFA4/LCV_diesel_N1-III_Euro-6d" CO2="2883.81" CO="0.48" HC="0.60" NOx="0.35" PMx="0.33" fuel="926.73" electricity="0.00" noise="63.32" route="!circuito_ice!var#1" type="carrinha_ice" waiting="0.00" lane=":J5_4_0" pos="10.53" speed="6.38" angle="110.95" x="8.94" y="670.62"/>
    </timestep>
    <timestep time="00:05:14">
        <vehicle id="circuito_ice" eclass="HBEFA4/LCV_diesel_N1-III_Euro-6d" CO2="2468.82" CO="0.34" HC="0.40" NOx="0.31" PMx="0.22" fuel="793.35" electricity="0.00" noise="61.92" route="!circuito_ice!var#1" type="carrinha_ice" waiting="0.00" lane="1014684308.33_2" pos="5.59" speed="6.99" angle="93.81" x="15.90" y="669.99"/>
    </timestep>
    <timestep time="00:05:15">
        <vehicle id="circuito_ice" eclass="HBEFA4/LCV_diesel_N1-III_Euro-6d" CO2="3572.37" CO="0.64" HC="0.83" NOx="0.50" PMx="0.47" fuel="1148.05" electricity="0.00" noise="66.25" route="!circuito_ice!var#1" type="carrinha_ice" waiting="0.00" lane="1014684308.33_1" pos="14.07" speed="8.48" angle="93.81" x="24.14" y="666.23"/>
    </timestep>
    <timestep time="00:05:16">
        <vehicle id="circuito_ice" eclass="HBEFA4/LCV_diesel_N1-III_Euro-6d" CO2="3477.92" CO="0.58" HC="0.75" NOx="0.52" PMx="0.43" fuel="1117.70" electricity="0.00" noise="66.18" route="!circuito_ice!var#1" type="carrinha_ice" waiting="0.00" lane="1014684308.33_1" pos="23.85" speed="9.78" angle="93.81" x="33.90" y="665.58"/>
    </timestep>
    <timestep time="00:05:17">
        <vehicle id="circuito_ice" eclass="HBEFA4/LCV_diesel_N1-III_Euro-6d" CO2="3244.54" CO="0.50" HC="0.63" NOx="0.50" PMx="0.37" fuel="1042.69" electricity="0.00" noise="65.80" route="!circuito_ice!var#1" type="carrinha_ice" waiting="0.00" lane="1014684308.33_1" pos="34.68" speed="10.83" angle="99.27" x="44.63" y="664.27"/>
    </timestep>
    <timestep time="00:05:18">
        <vehicle id="circuito_ice" eclass="HBEFA4/LCV_diesel_N1-III_Euro-6d" CO2="4412.35" CO="0.75" HC="0.98" NOx="0.78" PMx="0.58" fuel="1418.06" electricity="0.00" noise="69.42" route="!circuito_ice!var#1" type="carrinha_ice" waiting="0.00" lane="1014684308.33_1" pos="47.26" speed="12.58" angle="99.27" x="57.04" y="662.25"/>
    </timestep>
    <timestep time="00:05:19">
        <vehicle id="circuito_ice" eclass="HBEFA4/LCV_diesel_N1-III_Euro-6d" CO2="3211.25" CO="0.45" HC="0.56" NOx="0.55" PMx="0.34" fuel="1031.99" electricity="0.00" noise="66.75" route="!circuito_ice!var#1" type="carrinha_ice" waiting="0.00" lane="1014684308.33_1" pos="60.72" speed="13.46" angle="99.27" x="70.32" y="660.08"/>
    </timestep>
    <timestep time="00:05:20">
        <vehicle id="circuito_ice" eclass="HBEFA4/LCV_diesel_N1-III_Euro-6d" CO2="2368.05" CO="0.26" HC="0.29" NOx="0.37" PMx="0.19" fuel="760.96" electricity="0.00" noise="65.27" route="!circuito_ice!var#1" type="carrinha_ice" waiting="0.00" lane="1014684308.33_1" pos="74.50" speed="13.77" angle="104.64" x="83.80" y="657.37"/>
    </timestep>
    <timestep time="00:05:21">
        <vehicle id="circuito_ice" eclass="HBEFA4/LCV_diesel_N1-III_Euro-6d" CO2="0.00" CO="0.00" HC="0.00" NOx="0.00" PMx="0.00" fuel="0.00" electricity="0.00" noise="59.44" route="!circuito_ice!var#1" type="carrinha_ice" waiting="0.00" lane="1014684308.33_1" pos="86.01" speed="11.51" angle="104.62" x="94.93" y="654.47"/>
    </timestep>
    <timestep time="00:05:22">
        <vehicle id="circuito_ice" eclass="HBEFA4/LCV_diesel_N1-III_Euro-6d" CO2="0.00" CO="0.00" HC="0.00" NOx="0.00" PMx="0.00" fuel="0.00" electricity="0.00" noise="55.80" route="!circuito_ice!var#1" type="carrinha_ice" waiting="0.00" lane="1014684308.33_1" pos="94.72" speed="8.71" angle="104.62" x="103.35" y="652.27"/>
    </timestep>
    <timestep time="00:05:23">
        <vehicle id="circuito_ice" eclass="HBEFA4/LCV_diesel_N1-III_Euro-6d" CO2="0.00" CO="0.00" HC="0.00" NOx="0.00" PMx="0.00" fuel="0.00" electricity="0.00" noise="49.69" route="!circuito_ice!var#1" type="carrinha_ice" waiting="0.00" lane="1014684308.33_1" pos="99.95" speed="5.23" angle="104.61" x="108.40" y="650.95"/>
    </timestep>
    <timestep time="00:05:24">
        <vehicle id="circuito_ice" eclass="HBEFA4/LCV_diesel_N1-III_Euro-6d" CO2="0.00" CO="0.00" HC="0.00" NOx="0.00" PMx="0.00" fuel="0.00" electricity="0.00" noise="41.80" route="!circuito_ice!var#1" type="carrinha_ice" waiting="0.00" lane="1014684308.33_1" pos="101.57" speed="1.63" angle="104.60" x="109.98" y="650.54"/>
    </timestep>
    <timestep time="00:05:25">
        <vehicle id="circuito_ice" eclass="HBEFA4/LCV_diesel_N1-III_Euro-6d" CO2="818.54" CO="-0.38" HC="-0.56" NOx="0.16" PMx="-0.39" fuel="262.96" electricity="0.00" noise="49.79" route="!circuito_ice!var#1" type="carrinha_ice" waiting="0.00" lane="1014684308.33_1" pos="101.78" speed="0.21" angle="104.60" x="110.18" y="650.49"/>
    </timestep>
    <timestep time="00:05:26"/>
    <timestep time="00:05:27"/>
    <timestep time="00:05:28"/>
    <timestep time="00:05:29"/>
    <timestep time="00:05:30"/>
    <timestep time="00:05:31"/>
    <timestep time="00:05:32"/>
    <timestep time="00:05:33"/>
    <timestep time="00:05:34"/>
    <timestep time="00:05:35"/>
    <timestep time="00:05:36"/>
    <timestep time="00:05:37"/>
    <timestep time="00:05:38"/>
    <timestep time="00:05:39"/>
    <timestep time="00:05:40"/>
    <timestep time="00:05:41"/>
    <timestep time="00:05:42"/>
    <timestep time="00:05:43"/>
    <timestep time="00:05:44"/>
    <timestep time="00:05:45"/>
    <timestep time="00:05:46"/>
    <timestep time="00:05:47"/>
    <timestep time="00:05:48"/>
    <timestep time="00:05:49"/>
    <timestep time="00:05:50"/>
    <timestep time="00:05:51"/>
    <timestep time="00:05:52"/>
    <timestep time="00:05:53"/>
    <timestep time="00:05:54"/>
    <timestep time="00:05:55"/>
    <timestep time="00:05:56"/>
    <timestep time="00:05:57"/>
    <timestep time="00:05:58"/>
    <timestep time="00:05:59"/>
    <timestep time="00:06:00"/>
    <timestep time="00:06:01"/>
    <timestep time="00:06:02"/>
    <timestep time="00:06:03"/>
    <timestep time="00:06:04"/>
    <timestep time="00:06:05"/>
    <timestep time="00:06:06"/>
    <timestep time="00:06:07"/>
    <timestep time="00:06:08"/>
    <timestep time="00:06:09"/>
    <timestep time="00:06:10"/>
    <timestep time="00:06:11"/>
    <timestep time="00:06:12"/>
    <timestep time="00:06:13"/>
    <timestep time="00:06:14"/>
    <timestep time="00:06:15"/>
    <timestep time="00:06:16"/>
    <timestep time="00:06:17"/>
    <timestep time="00:06:18"/>
    <timestep time="00:06:19"/>
    <timestep time="00:06:20"/>
    <timestep time="00:06:21"/>
    <timestep time="00:06:22"/>
    <timestep time="00:06:23"/>
    <timestep time="00:06:24"/>
    <timestep time="00:06:25"/>
    <timestep time="00:06:26"/>
    <timestep time="00:06:27"/>
    <timestep time="00:06:28"/>
    <timestep time="00:06:29"/>
    <timestep time="00:06:30"/>
    <timestep time="00:06:31"/>
    <timestep time="00:06:32"/>
    <timestep time="00:06:33"/>
    <timestep time="00:06:34"/>
    <timestep time="00:06:35"/>
    <timestep time="00:06:36"/>
    <timestep time="00:06:37"/>
    <timestep time="00:06:38"/>
    <timestep time="00:06:39"/>
    <timestep time="00:06:40"/>
    <timestep time="00:06:41"/>
    <timestep time="00:06:42"/>
    <timestep time="00:06:43"/>
    <timestep time="00:06:44"/>
    <timestep time="00:06:45"/>
    <timestep time="00:06:46"/>
    <timestep time="00:06:47"/>
    <timestep time="00:06:48"/>
    <timestep time="00:06:49"/>
    <timestep time="00:06:50"/>
    <timestep time="00:06:51"/>
    <timestep time="00:06:52"/>
    <timestep time="00:06:53"/>
    <timestep time="00:06:54"/>
    <timestep time="00:06:55"/>
    <timestep time="00:06:56"/>
    <timestep time="00:06:57"/>
    <timestep time="00:06:58"/>
    <timestep time="00:06:59"/>
    <timestep time="00:07:00"/>
    <timestep time="00:07:01"/>
    <timestep time="00:07:02"/>
    <timestep time="00:07:03"/>
    <timestep time="00:07:04"/>
    <timestep time="00:07:05"/>
    <timestep time="00:07:06"/>
    <timestep time="00:07:07"/>
    <timestep time="00:07:08"/>
    <timestep time="00:07:09"/>
    <timestep time="00:07:10"/>
    <timestep time="00:07:11"/>
    <timestep time="00:07:12"/>
    <timestep time="00:07:13"/>
    <timestep time="00:07:14"/>
    <timestep time="00:07:15"/>
    <timestep time="00:07:16"/>
    <timestep time="00:07:17"/>
    <timestep time="00:07:18"/>
    <timestep time="00:07:19"/>
    <timestep time="00:07:20"/>
    <timestep time="00:07:21"/>
    <timestep time="00:07:22"/>
    <timestep time="00:07:23"/>
    <timestep time="00:07:24"/>
    <timestep time="00:07:25"/>
    <timestep time="00:07:26"/>
    <timestep time="00:07:27"/>
    <timestep time="00:07:28"/>
    <timestep time="00:07:29"/>
    <timestep time="00:07:30"/>
    <timestep time="00:07:31"/>
    <timestep time="00:07:32"/>
    <timestep time="00:07:33"/>
    <timestep time="00:07:34"/>
    <timestep time="00:07:35"/>
    <timestep time="00:07:36"/>
    <timestep time="00:07:37"/>
    <timestep time="00:07:38"/>
    <timestep time="00:07:39"/>
    <timestep time="00:07:40"/>
    <timestep time="00:07:41"/>
    <timestep time="00:07:42"/>
    <timestep time="00:07:43"/>
    <timestep time="00:07:44"/>
    <timestep time="00:07:45"/>
    <timestep time="00:07:46"/>
    <timestep time="00:07:47"/>
    <timestep time="00:07:48"/>
    <timestep time="00:07:49"/>
    <timestep time="00:07:50"/>
    <timestep time="00:07:51"/>
    <timestep time="00:07:52"/>
    <timestep time="00:07:53"/>
    <timestep time="00:07:54"/>
    <timestep time="00:07:55"/>
    <timestep time="00:07:56"/>
    <timestep time="00:07:57"/>
    <timestep time="00:07:58"/>
    <timestep time="00:07:59"/>
    <timestep time="00:08:00"/>
    <timestep time="00:08:01"/>
    <timestep time="00:08:02"/>
    <timestep time="00:08:03"/>
    <timestep time="00:08:04"/>
    <timestep time="00:08:05"/>
    <timestep time="00:08:06"/>
    <timestep time="00:08:07"/>
    <timestep time="00:08:08"/>
    <timestep time="00:08:09"/>
    <timestep time="00:08:10"/>
    <timestep time="00:08:11"/>
    <timestep time="00:08:12"/>
    <timestep time="00:08:13"/>
    <timestep time="00:08:14"/>
    <timestep time="00:08:15"/>
    <timestep time="00:08:16"/>
    <timestep time="00:08:17"/>
    <timestep time="00:08:18"/>
    <timestep time="00:08:19"/>
    <timestep time="00:08:20"/>
    <timestep time="00:08:21"/>
    <timestep time="00:08:22"/>
    <timestep time="00:08:23"/>
    <timestep time="00:08:24"/>
    <timestep time="00:08:25"/>
    <timestep time="00:08:26"/>
    <timestep time="00:08:27"/>
    <timestep time="00:08:28"/>
    <timestep time="00:08:29"/>
    <timestep time="00:08:30"/>
    <timestep time="00:08:31"/>
    <timestep time="00:08:32"/>
    <timestep time="00:08:33"/>
    <timestep time="00:08:34"/>
    <timestep time="00:08:35"/>
    <timestep time="00:08:36"/>
    <timestep time="00:08:37"/>
    <timestep time="00:08:38"/>
    <timestep time="00:08:39"/>
    <timestep time="00:08:40"/>
    <timestep time="00:08:41"/>
    <timestep time="00:08:42"/>
    <timestep time="00:08:43"/>
    <timestep time="00:08:44"/>
    <timestep time="00:08:45"/>
    <timestep time="00:08:46"/>
    <timestep time="00:08:47"/>
    <timestep time="00:08:48"/>
    <timestep time="00:08:49"/>
    <timestep time="00:08:50"/>
    <timestep time="00:08:51"/>
    <timestep time="00:08:52"/>
    <timestep time="00:08:53"/>
    <timestep time="00:08:54"/>
    <timestep time="00:08:55"/>
    <timestep time="00:08:56"/>
    <timestep time="00:08:57"/>
    <timestep time="00:08:58"/>
    <timestep time="00:08:59"/>
    <timestep time="00:09:00"/>
    <timestep time="00:09:01"/>
    <timestep time="00:09:02"/>
    <timestep time="00:09:03"/>
    <timestep time="00:09:04"/>
    <timestep time="00:09:05"/>
    <timestep time="00:09:06"/>
    <timestep time="00:09:07"/>
    <timestep time="00:09:08"/>
    <timestep time="00:09:09"/>
    <timestep time="00:09:10"/>
    <timestep time="00:09:11"/>
    <timestep time="00:09:12"/>
    <timestep time="00:09:13"/>
    <timestep time="00:09:14"/>
    <timestep time="00:09:15"/>
    <timestep time="00:09:16"/>
    <timestep time="00:09:17"/>
    <timestep time="00:09:18"/>
    <timestep time="00:09:19"/>
    <timestep time="00:09:20"/>
    <timestep time="00:09:21"/>
    <timestep time="00:09:22"/>
    <timestep time="00:09:23"/>
    <timestep time="00:09:24"/>
    <timestep time="00:09:25">
        <vehicle id="circuito_ice" eclass="HBEFA4/LCV_diesel_N1-III_Euro-6d" CO2="0.00" CO="0.00" HC="0.00" NOx="0.00" PMx="0.00" fuel="0.00" electricity="0.00" noise="55.94" route="!circuito_ice!var#1" type="carrinha_ice" waiting="0.00" lane="1014684308.33_1" pos="101.87" speed="0.00" angle="104.58" x="109.46" y="647.37"/>
    </timestep>
    <timestep time="00:09:26">
        <vehicle id="circuito_ice" eclass="HBEFA4/LCV_diesel_N1-III_Euro-6d" CO2="2504.46" CO="0.46" HC="0.58" NOx="0.19" PMx="0.29" fuel="804.79" electricity="0.00" noise="60.93" route="!circuito_ice!var#1" type="carrinha_ice" waiting="0.00" lane="1014684308.33_1" pos="102.91" speed="1.04" angle="104.59" x="111.28" y="650.20"/>
    </timestep>
    <timestep time="00:09:27">