<?xml version="1.0" encoding="UTF-8"?>

<!-- generated on 2023-06-22 02:39:13 by Eclipse SUMO sumo Version 1.16.0
<configuration xmlns:xsi="http://www.w3.org/2001/XMLSchema-instance" xsi:noNamespaceSchemaLocation="http://sumo.dlr.de/xsd/sumoConfiguration.xsd">

    <input>
        <net-file value="osm.netbaseline.xml.gz"/>
        <route-files value="osm.delivery1.rou.xml, osm_pt.rou.xml,osm.bicycle.rou.xml,osm.bus_manual.rou.xml,osm.deliveryrandom.rou.xml,osm.flow_adicional.rou.xml,osm.motorcycle.rou.xml,osm.passenger.rou.xml,osm.pedestrian.rou.xml,osm.truck.rou.xml"/>
        <additional-files value="osm_stops.add.xml, osm.poly.xml.gz"/>
    </input>

    <output>
        <human-readable-time value="true"/>
        <emission-output value="emissions.xml"/>
        <tripinfo-output value="tripinfo.xml"/>
        <tripinfo-output.write-unfinished value="true"/>
    </output>

    <processing>
        <ignore-route-errors value="true"/>
    </processing>

    <routing>
        <device.rerouting.adaptation-steps value="18"/>
        <device.rerouting.adaptation-interval value="10"/>
    </routing>

    <report>
        <verbose value="true"/>
        <duration-log.statistics value="true"/>
        <no-step-log value="true"/>
    </report>

    <emissions>
        <device.emissions.probability value="0"/>
    </emissions>

    <tripinfo_device>
        <device.tripinfo.probability value="0"/>
    </tripinfo_device>

    <gui_only>
        <gui-settings-file value="osm.view.xml"/>
    </gui_only>

</configuration>
-->

<tripinfos xmlns:xsi="http://www.w3.org/2001/XMLSchema-instance" xsi:noNamespaceSchemaLocation="http://sumo.dlr.de/xsd/tripinfo_file.xsd">
    <personinfo id="ped15" depart="00:01:23.38" type="ped_pedestrian" speedFactor="0.93">
        <walk depart="00:01:24" departPos="0.00" arrival="00:04:39" arrivalPos="66.71" duration="00:03:15" routeLength="224.93" timeLoss="00:00:20.43" maxSpeed="1.29"/>
    </personinfo>
    <personinfo id="ped24" depart="00:02:13.41" type="ped_pedestrian" speedFactor="1.18">
        <walk depart="00:02:14" departPos="0.00" arrival="00:05:12" arrivalPos="14.74" duration="00:02:58" routeLength="259.35" timeLoss="00:00:19.37" maxSpeed="1.63"/>
    </personinfo>
    <personinfo id="ped50" depart="00:04:37.94" type="ped_pedestrian" speedFactor="0.96">
        <walk depart="00:04:38" departPos="0.00" arrival="00:05:52" arrivalPos="15.27" duration="00:01:14" routeLength="87.69" timeLoss="00:00:08.11" maxSpeed="1.33"/>
    </personinfo>
    <personinfo id="ped35" depart="00:03:14.56" type="ped_pedestrian" speedFactor="1.15">
        <walk depart="00:03:15" departPos="0.00" arrival="00:06:10" arrivalPos="29.45" duration="00:02:55" routeLength="251.57" timeLoss="00:00:17.88" maxSpeed="1.60"/>
    </personinfo>
    <personinfo id="ped12" depart="00:01:06.71" type="ped_pedestrian" speedFactor="1.03">
        <walk depart="00:01:07" departPos="0.00" arrival="00:06:46" arrivalPos="98.08" duration="00:05:39" routeLength="437.03" timeLoss="00:00:34.83" maxSpeed="1.44"/>
    </personinfo>
    <personinfo id="ped48" depart="00:04:26.82" type="ped_pedestrian" speedFactor="0.91">
        <walk depart="00:04:27" departPos="0.00" arrival="00:07:24" arrivalPos="39.85" duration="00:02:57" routeLength="175.10" timeLoss="00:00:38.64" maxSpeed="1.27"/>
    </personinfo>
    <personinfo id="ped29" depart="00:02:41.20" type="ped_pedestrian" speedFactor="1.10">
        <walk depart="00:02:42" departPos="0.00" arrival="00:07:56" arrivalPos="56.96" duration="00:05:14" routeLength="411.17" timeLoss="00:00:45.65" maxSpeed="1.53"/>
    </personinfo>
    <personinfo id="ped68" depart="00:06:18" type="ped_pedestrian" speedFactor="0.88">
        <walk depart="00:06:18" departPos="0.00" arrival="00:08:00" arrivalPos="98.08" duration="00:01:42" routeLength="110.67" timeLoss="00:00:11.23" maxSpeed="1.22"/>
    </personinfo>
    <personinfo id="ped14" depart="00:01:17.82" type="ped_pedestrian" speedFactor="0.96">
        <walk depart="00:01:18" departPos="0.00" arrival="00:08:10" arrivalPos="42.53" duration="00:06:52" routeLength="490.07" timeLoss="00:00:44.30" maxSpeed="1.33"/>
    </personinfo>
    <personinfo id="ped83" depart="00:07:41.38" type="ped_pedestrian" speedFactor="1.00">
        <walk depart="00:07:42" departPos="0.00" arrival="00:08:25" arrivalPos="23.46" duration="00:00:43" routeLength="53.28" timeLoss="00:00:04.48" maxSpeed="1.38"/>
    </personinfo>
    <personinfo id="ped18" depart="00:01:40.06" type="ped_pedestrian" speedFactor="1.10">
        <walk depart="00:01:41" departPos="0.00" arrival="00:08:35" arrivalPos="75.56" duration="00:06:54" routeLength="558.67" timeLoss="00:00:47.83" maxSpeed="1.53"/>
    </personinfo>
    <personinfo id="ped13" depart="00:01:12.26" type="ped_pedestrian" speedFactor="1.06">
        <walk depart="00:01:13" departPos="0.00" arrival="00:08:41" arrivalPos="2.83" duration="00:07:28" routeLength="572.49" timeLoss="00:01:00.89" maxSpeed="1.48"/>
    </personinfo>
    <personinfo id="ped86" depart="00:07:58.05" type="ped_pedestrian" speedFactor="1.02">
        <walk depart="00:07:59" departPos="0.00" arrival="00:09:06" arrivalPos="9.80" duration="00:01:07" routeLength="84.82" timeLoss="00:00:06.88" maxSpeed="1.41"/>
    </personinfo>
    <personinfo id="ped27" depart="00:02:30.09" type="ped_pedestrian" speedFactor="1.07">
        <walk depart="00:02:31" departPos="0.00" arrival="00:09:18" arrivalPos="69.53" duration="00:06:47" routeLength="496.95" timeLoss="00:01:12.88" maxSpeed="1.49"/>
    </personinfo>
    <personinfo id="ped5" depart="00:00:27.79" type="ped_pedestrian" speedFactor="0.96">
        <walk depart="00:00:28" departPos="0.00" arrival="00:09:35" arrivalPos="48.70" duration="00:09:07" routeLength="650.17" timeLoss="00:00:57.69" maxSpeed="1.33"/>
    </personinfo>
    <personinfo id="ped93" depart="00:08:36.96" type="ped_pedestrian" speedFactor="0.81">
        <walk depart="00:08:37" departPos="0.00" arrival="00:09:54" arrivalPos="23.68" duration="00:01:17" routeLength="59.30" timeLoss="00:00:24.37" maxSpeed="1.13"/>
    </personinfo>
    <personinfo id="ped45" depart="00:04:10.14" type="ped_pedestrian" speedFactor="0.97">
        <walk depart="00:04:11" departPos="0.00" arrival="00:10:17" arrivalPos="16.00" duration="00:06:06" routeLength="411.07" timeLoss="00:01:00.84" maxSpeed="1.35"/>
    </personinfo>
    <personinfo id="ped65" depart="00:06:01.32" type="ped_pedestrian" speedFactor="1.14">
        <walk depart="00:06:02" departPos="0.00" arrival="00:10:35" arrivalPos="48.98" duration="00:04:33" routeLength="374.56" timeLoss="00:00:36.40" maxSpeed="1.58"/>
    </personinfo>
    <personinfo id="ped80" depart="00:07:24.70" type="ped_pedestrian" speedFactor="1.12">
        <walk depart="00:07:25" departPos="0.00" arrival="00:10:41" arrivalPos="9.56" duration="00:03:16" routeLength="262.53" timeLoss="00:00:26.97" maxSpeed="1.55"/>
    </personinfo>
    <personinfo id="ped22" depart="00:02:02.29" type="ped_pedestrian" speedFactor="1.10">
        <walk depart="00:02:03" departPos="0.00" arrival="00:11:01" arrivalPos="36.31" duration="00:08:58" routeLength="695.21" timeLoss="00:01:21.46" maxSpeed="1.52"/>
    </personinfo>
    <personinfo id="ped34" depart="00:03:09" type="ped_pedestrian" speedFactor="1.06">
        <walk depart="00:03:09" departPos="0.00" arrival="00:11:32" arrivalPos="24.73" duration="00:08:23" routeLength="615.29" timeLoss="00:01:25.43" maxSpeed="1.47"/>
    </personinfo>
    <personinfo id="ped75" depart="00:06:56.91" type="ped_pedestrian" speedFactor="1.19">
        <walk depart="00:06:57" departPos="0.00" arrival="00:11:38" arrivalPos="135.43" duration="00:04:41" routeLength="415.01" timeLoss="00:00:29.31" maxSpeed="1.65"/>
    </personinfo>
    <personinfo id="ped30" depart="00:02:46.76" type="ped_pedestrian" speedFactor="1.03">
        <walk depart="00:02:47" departPos="0.00" arrival="00:11:47" arrivalPos="77.24" duration="00:09:00" routeLength="673.15" timeLoss="00:01:10.09" maxSpeed="1.43"/>
    </personinfo>
    <personinfo id="ped3" depart="00:00:16.68" type="ped_pedestrian" speedFactor="1.06">
        <walk depart="00:00:17" departPos="0.00" arrival="00:12:09" arrivalPos="68.28" duration="00:11:52" routeLength="900.07" timeLoss="00:01:43.50" maxSpeed="1.48"/>
    </personinfo>
    <personinfo id="ped130" depart="00:12:02.64" type="ped_pedestrian" speedFactor="1.01">
        <walk depart="00:12:03" departPos="0.00" arrival="00:12:16" arrivalPos="15.62" duration="00:00:13" routeLength="15.62" timeLoss="00:00:01.88" maxSpeed="1.40"/>
    </personinfo>
    <personinfo id="ped10" depart="00:00:55.59" type="ped_pedestrian" speedFactor="1.07">
        <walk depart="00:00:56" departPos="0.00" arrival="00:12:18" arrivalPos="99.98" duration="00:11:22" routeLength="891.43" timeLoss="00:01:23.67" maxSpeed="1.49"/>
    </personinfo>
    <personinfo id="ped104" depart="00:09:38.11" type="ped_pedestrian" speedFactor="1.14">
        <walk depart="00:09:39" departPos="0.00" arrival="00:13:08" arrivalPos="60.66" duration="00:03:29" routeLength="295.96" timeLoss="00:00:21.98" maxSpeed="1.58"/>
    </personinfo>
    <personinfo id="ped74" depart="00:06:51.35" type="ped_pedestrian" speedFactor="0.86">
        <walk depart="00:06:52" departPos="0.00" arrival="00:13:28" arrivalPos="8.59" duration="00:06:36" routeLength="418.03" timeLoss="00:00:46.02" maxSpeed="1.19"/>
    </personinfo>
    <personinfo id="ped138" depart="00:12:47.11" type="ped_pedestrian" speedFactor="1.09">
        <walk depart="00:12:48" departPos="0.00" arrival="00:13:32" arrivalPos="0.10" duration="00:00:44" routeLength="60.71" timeLoss="00:00:04.02" maxSpeed="1.52"/>
    </personinfo>
    <personinfo id="ped23" depart="00:02:07.85" type="ped_pedestrian" speedFactor="0.92">
        <walk depart="00:02:08" departPos="0.00" arrival="00:13:48" arrivalPos="16.51" duration="00:11:40" routeLength="767.07" timeLoss="00:01:40.99" maxSpeed="1.28"/>
    </personinfo>
    <personinfo id="ped6" depart="00:00:33.35" type="ped_pedestrian" speedFactor="0.97">
        <walk depart="00:00:34" departPos="0.00" arrival="00:14:03" arrivalPos="44.91" duration="00:13:29" routeLength="926.63" timeLoss="00:01:59.92" maxSpeed="1.34"/>
    </personinfo>
    <personinfo id="ped37" depart="00:03:25.67" type="ped_pedestrian" speedFactor="0.82">
        <walk depart="00:03:26" departPos="0.00" arrival="00:14:13" arrivalPos="0.10" duration="00:10:47" routeLength="663.91" timeLoss="00:01:05.54" maxSpeed="1.14"/>
    </personinfo>
    <personinfo id="ped96" depart="00:08:53.64" type="ped_pedestrian" speedFactor="1.08">
        <walk depart="00:08:54" departPos="0.00" arrival="00:14:17" arrivalPos="36.48" duration="00:05:23" routeLength="418.03" timeLoss="00:00:44.21" maxSpeed="1.50"/>
    </personinfo>
    <personinfo id="ped25" depart="00:02:18.97" type="ped_pedestrian" speedFactor="1.00">
        <walk depart="00:02:19" departPos="0.00" arrival="00:14:33" arrivalPos="99.98" duration="00:12:14" routeLength="906.42" timeLoss="00:01:24.17" maxSpeed="1.39"/>
    </personinfo>
    <personinfo id="ped59" depart="00:05:27.97" type="ped_pedestrian" speedFactor="0.99">
        <walk depart="00:05:28" departPos="0.00" arrival="00:14:34" arrivalPos="75.56" duration="00:09:06" routeLength="672.42" timeLoss="00:00:56.82" maxSpeed="1.37"/>
    </personinfo>
    <personinfo id="ped102" depart="00:09:26.99" type="ped_pedestrian" speedFactor="0.96">
        <walk depart="00:09:27" departPos="0.00" arrival="00:14:41" arrivalPos="7.20" duration="00:05:14" routeLength="376.38" timeLoss="00:00:31.92" maxSpeed="1.33"/>
    </personinfo>
    <personinfo id="ped139" depart="00:12:52.67" type="ped_pedestrian" speedFactor="1.07">
        <walk depart="00:12:53" departPos="0.00" arrival="00:14:43" arrivalPos="90.95" duration="00:01:50" routeLength="146.51" timeLoss="00:00:11.75" maxSpeed="1.49"/>
    </personinfo>
    <personinfo id="ped53" depart="00:04:54.61" type="ped_pedestrian" speedFactor="1.10">
        <walk depart="00:04:55" departPos="0.00" arrival="00:15:07" arrivalPos="65.35" duration="00:10:12" routeLength="816.27" timeLoss="00:01:15.47" maxSpeed="1.52"/>
    </personinfo>
    <personinfo id="ped1" depart="00:00:05.56" type="ped_pedestrian" speedFactor="1.09">
        <walk depart="00:00:06" departPos="0.00" arrival="00:15:09" arrivalPos="31.84" duration="00:15:03" routeLength="1205.25" timeLoss="00:01:47.39" maxSpeed="1.51"/>
    </personinfo>
    <personinfo id="ped7" depart="00:00:38.91" type="ped_pedestrian" speedFactor="0.95">
        <walk depart="00:00:39" departPos="0.00" arrival="00:15:09" arrivalPos="2.85" duration="00:14:30" routeLength="994.70" timeLoss="00:01:58.10" maxSpeed="1.32"/>
    </personinfo>
    <personinfo id="ped58" depart="00:05:22.41" type="ped_pedestrian" speedFactor="0.97">
        <walk depart="00:05:23" departPos="0.00" arrival="00:15:10" arrivalPos="77.24" duration="00:09:47" routeLength="679.57" timeLoss="00:01:22.53" maxSpeed="1.35"/>
    </personinfo>
    <personinfo id="ped76" depart="00:07:02.47" type="ped_pedestrian" speedFactor="0.95">
        <walk depart="00:07:03" departPos="0.00" arrival="00:15:25" arrivalPos="9.55" duration="00:08:22" routeLength="562.34" timeLoss="00:01:15.45" maxSpeed="1.32"/>
    </personinfo>
    <personinfo id="ped56" depart="00:05:11.29" type="ped_pedestrian" speedFactor="1.01">
        <walk depart="00:05:12" departPos="0.00" arrival="00:15:31" arrivalPos="27.54" duration="00:10:19" routeLength="732.62" timeLoss="00:01:38.23" maxSpeed="1.41"/>
    </personinfo>
    <personinfo id="ped82" depart="00:07:35.82" type="ped_pedestrian" speedFactor="1.11">
        <walk depart="00:07:36" departPos="0.00" arrival="00:15:37" arrivalPos="42.05" duration="00:08:01" routeLength="646.57" timeLoss="00:01:03.45" maxSpeed="1.55"/>
    </personinfo>
    <personinfo id="ped60" depart="00:05:33.53" type="ped_pedestrian" speedFactor="1.02">
        <walk depart="00:05:34" departPos="0.00" arrival="00:15:57" arrivalPos="2.83" duration="00:10:23" routeLength="793.44" timeLoss="00:01:05.11" maxSpeed="1.42"/>
    </personinfo>
    <personinfo id="ped11" depart="00:01:01.15" type="ped_pedestrian" speedFactor="1.01">
        <walk depart="00:01:02" departPos="0.00" arrival="00:16:01" arrivalPos="6.93" duration="00:14:59" routeLength="1073.25" timeLoss="00:02:16.93" maxSpeed="1.41"/>
    </personinfo>
    <personinfo id="ped54" depart="00:05:00.17" type="ped_pedestrian" speedFactor="1.13">
        <walk depart="00:05:01" departPos="0.00" arrival="00:16:10" arrivalPos="32.86" duration="00:11:09" routeLength="925.80" timeLoss="00:01:17.85" maxSpeed="1.57"/>
    </personinfo>
    <personinfo id="ped36" depart="00:03:20.12" type="ped_pedestrian" speedFactor="1.03">
        <walk depart="00:03:21" departPos="0.00" arrival="00:16:14" arrivalPos="32.86" duration="00:12:53" routeLength="936.98" timeLoss="00:01:59.42" maxSpeed="1.43"/>
    </personinfo>
    <personinfo id="ped113" depart="00:10:28.14" type="ped_pedestrian" speedFactor="1.16">
        <walk depart="00:10:29" departPos="0.00" arrival="00:16:35" arrivalPos="23.99" duration="00:06:06" routeLength="525.39" timeLoss="00:00:40.52" maxSpeed="1.61"/>
    </personinfo>
    <personinfo id="ped170" depart="00:15:44.99" type="ped_pedestrian" speedFactor="1.05">
        <walk depart="00:15:45" departPos="0.00" arrival="00:16:54" arrivalPos="13.31" duration="00:01:09" routeLength="89.86" timeLoss="00:00:07.52" maxSpeed="1.46"/>
    </personinfo>
    <personinfo id="ped51" depart="00:04:43.50" type="ped_pedestrian" speedFactor="1.04">
        <walk depart="00:04:44" departPos="0.00" arrival="00:17:11" arrivalPos="3.50" duration="00:12:27" routeLength="922.36" timeLoss="00:01:49.24" maxSpeed="1.45"/>
    </personinfo>
    <personinfo id="ped20" depart="00:01:51.18" type="ped_pedestrian" speedFactor="1.01">
        <walk depart="00:01:52" departPos="0.00" arrival="00:17:13" arrivalPos="58.96" duration="00:15:21" routeLength="1151.68" timeLoss="00:01:39.19" maxSpeed="1.40"/>
    </personinfo>
    <personinfo id="ped63" depart="00:05:50.20" type="ped_pedestrian" speedFactor="0.97">
        <walk depart="00:05:51" departPos="0.00" arrival="00:17:19" arrivalPos="37.37" duration="00:11:28" routeLength="820.97" timeLoss="00:01:20.25" maxSpeed="1.35"/>
    </personinfo>
    <personinfo id="ped143" depart="00:13:14.90" type="ped_pedestrian" speedFactor="0.91">
        <walk depart="00:13:15" departPos="0.00" arrival="00:17:27" arrivalPos="96.38" duration="00:04:12" routeLength="285.07" timeLoss="00:00:27.34" maxSpeed="1.27"/>
    </personinfo>
    <personinfo id="ped101" depart="00:09:21.43" type="ped_pedestrian" speedFactor="0.85">
        <walk depart="00:09:22" departPos="0.00" arrival="00:17:45" arrivalPos="82.56" duration="00:08:23" routeLength="510.67" timeLoss="00:01:11.29" maxSpeed="1.18"/>
    </personinfo>
    <personinfo id="ped94" depart="00:08:42.52" type="ped_pedestrian" speedFactor="1.10">
        <walk depart="00:08:43" departPos="0.00" arrival="00:17:59" arrivalPos="11.70" duration="00:09:16" routeLength="726.54" timeLoss="00:01:18.45" maxSpeed="1.52"/>
    </personinfo>
    <personinfo id="ped28" depart="00:02:35.65" type="ped_pedestrian" speedFactor="0.94">
        <walk depart="00:02:36" departPos="0.00" arrival="00:18:01" arrivalPos="66.71" duration="00:15:25" routeLength="1038.24" timeLoss="00:02:11.02" maxSpeed="1.31"/>
    </personinfo>
    <personinfo id="ped154" depart="00:14:16.05" type="ped_pedestrian" speedFactor="1.10">
        <walk depart="00:14:17" departPos="0.00" arrival="00:18:02" arrivalPos="16.51" duration="00:03:45" routeLength="271.24" timeLoss="00:00:46.81" maxSpeed="1.52"/>
    </personinfo>
    <personinfo id="ped123" depart="00:11:23.73" type="ped_pedestrian" speedFactor="0.92">
        <walk depart="00:11:24" departPos="0.00" arrival="00:18:04" arrivalPos="0.10" duration="00:06:40" routeLength="458.34" timeLoss="00:00:40.32" maxSpeed="1.27"/>
    </personinfo>
    <personinfo id="ped33" depart="00:03:03.44" type="ped_pedestrian" speedFactor="1.02">
        <walk depart="00:03:04" departPos="0.00" arrival="00:18:17" arrivalPos="15.04" duration="00:15:13" routeLength="1115.86" timeLoss="00:02:07.95" maxSpeed="1.42"/>
    </personinfo>
    <personinfo id="ped8" depart="00:00:44.47" type="ped_pedestrian" speedFactor="0.89">
        <walk depart="00:00:45" departPos="0.00" arrival="00:18:22" arrivalPos="108.84" duration="00:17:37" routeLength="1137.69" timeLoss="00:02:20.64" maxSpeed="1.24"/>
    </personinfo>
    <personinfo id="ped85" depart="00:07:52.49" type="ped_pedestrian" speedFactor="1.14">
        <walk depart="00:07:53" departPos="0.00" arrival="00:18:23" arrivalPos="10.98" duration="00:10:30" routeLength="818.01" timeLoss="00:01:53.41" maxSpeed="1.58"/>
    </personinfo>
    <personinfo id="ped0" depart="00:00:00" type="ped_pedestrian" speedFactor="0.86">
        <walk depart="00:00:00" departPos="0.00" arrival="00:18:44" arrivalPos="2.83" duration="00:18:44" routeLength="1116.50" timeLoss="00:03:05.87" maxSpeed="1.19"/>
    </personinfo>
    <personinfo id="ped87" depart="00:08:03.61" type="ped_pedestrian" speedFactor="1.11">
        <walk depart="00:08:04" departPos="0.00" arrival="00:18:52" arrivalPos="38.92" duration="00:10:48" routeLength="902.40" timeLoss="00:01:04.86" maxSpeed="1.55"/>
    </personinfo>
    <personinfo id="ped79" depart="00:07:19.14" type="ped_pedestrian" speedFactor="0.99">
        <walk depart="00:07:20" departPos="0.00" arrival="00:18:53" arrivalPos="42.64" duration="00:11:33" routeLength="858.94" timeLoss="00:01:10.45" maxSpeed="1.38"/>
    </personinfo>
    <personinfo id="ped136" depart="00:12:35.99" type="ped_pedestrian" speedFactor="1.01">
        <walk depart="00:12:36" departPos="0.00" arrival="00:19:02" arrivalPos="69.51" duration="00:06:26" routeLength="483.26" timeLoss="00:00:39.99" maxSpeed="1.40"/>
    </personinfo>
    <personinfo id="ped26" depart="00:02:24.53" type="ped_pedestrian" speedFactor="0.99">
        <walk depart="00:02:25" departPos="0.00" arrival="00:19:24" arrivalPos="12.25" duration="00:16:59" routeLength="1203.12" timeLoss="00:02:25.24" maxSpeed="1.38"/>
    </personinfo>
    <personinfo id="ped64" depart="00:05:55.76" type="ped_pedestrian" speedFactor="1.04">
        <walk depart="00:05:56" departPos="0.00" arrival="00:19:59" arrivalPos="10.26" duration="00:14:03" routeLength="1075.53" timeLoss="00:01:38.76" maxSpeed="1.45"/>
    </personinfo>
    <personinfo id="ped117" depart="00:10:50.37" type="ped_pedestrian" speedFactor="1.11">
        <walk depart="00:10:51" departPos="0.00" arrival="00:19:59" arrivalPos="22.09" duration="00:09:08" routeLength="723.44" timeLoss="00:01:16.96" maxSpeed="1.54"/>
    </personinfo>
    <personinfo id="ped109" depart="00:10:05.90" type="ped_pedestrian" speedFactor="0.90">
        <walk depart="00:10:06" departPos="0.00" arrival="00:20:04" arrivalPos="3.71" duration="00:09:58" routeLength="635.57" timeLoss="00:01:27.56" maxSpeed="1.25"/>
    </personinfo>
    <personinfo id="ped203" depart="00:18:48.43" type="ped_pedestrian" speedFactor="0.97">
        <walk depart="00:18:49" departPos="0.00" arrival="00:20:31" arrivalPos="37.51" duration="00:01:42" routeLength="49.16" timeLoss="00:01:05.61" maxSpeed="1.35"/>
    </personinfo>
    <personinfo id="ped42" depart="00:03:53.47" type="ped_pedestrian" speedFactor="1.14">
        <walk depart="00:03:54" departPos="0.00" arrival="00:20:37" arrivalPos="42.64" duration="00:16:43" routeLength="1320.32" timeLoss="00:02:49.92" maxSpeed="1.58"/>
    </personinfo>
    <personinfo id="ped115" depart="00:10:39.26" type="ped_pedestrian" speedFactor="1.18">
        <walk depart="00:10:40" departPos="0.00" arrival="00:20:40" arrivalPos="22.46" duration="00:10:00" routeLength="827.65" timeLoss="00:01:34.18" maxSpeed="1.64"/>
    </personinfo>
    <personinfo id="ped47" depart="00:04:21.26" type="ped_pedestrian" speedFactor="1.15">
        <walk depart="00:04:22" departPos="0.00" arrival="00:20:45" arrivalPos="77.22" duration="00:16:23" routeLength="1312.47" timeLoss="00:02:42.64" maxSpeed="1.60"/>
    </personinfo>
    <personinfo id="ped38" depart="00:03:31.23" type="ped_pedestrian" speedFactor="1.09">
        <walk depart="00:03:32" departPos="0.00" arrival="00:20:58" arrivalPos="9.31" duration="00:17:26" routeLength="1389.06" timeLoss="00:02:09.97" maxSpeed="1.52"/>
    </personinfo>
    <personinfo id="ped77" depart="00:07:08.02" type="ped_pedestrian" speedFactor="1.20">
        <walk depart="00:07:09" departPos="0.00" arrival="00:21:04" arrivalPos="31.84" duration="00:13:55" routeLength="1207.25" timeLoss="00:01:51.80" maxSpeed="1.67"/>
    </personinfo>
    <personinfo id="ped134" depart="00:12:24.87" type="ped_pedestrian" speedFactor="1.12">
        <walk depart="00:12:25" departPos="0.00" arrival="00:21:38" arrivalPos="41.23" duration="00:09:13" routeLength="716.55" timeLoss="00:01:34.17" maxSpeed="1.56"/>
    </personinfo>
    <personinfo id="ped124" depart="00:11:29.29" type="ped_pedestrian" speedFactor="0.93">
        <walk depart="00:11:30" departPos="0.00" arrival="00:21:58" arrivalPos="22.91" duration="00:10:28" routeLength="704.29" timeLoss="00:01:20.98" maxSpeed="1.29"/>
    </personinfo>
    <personinfo id="ped97" depart="00:08:59.20" type="ped_pedestrian" speedFactor="0.92">
        <walk depart="00:09:00" departPos="0.00" arrival="00:22:10" arrivalPos="16.51" duration="00:13:10" routeLength="867.75" timeLoss="00:01:53.17" maxSpeed="1.28"/>
    </personinfo>
    <personinfo id="ped90" depart="00:08:20.29" type="ped_pedestrian" speedFactor="1.01">
        <walk depart="00:08:21" departPos="0.00" arrival="00:22:16" arrivalPos="38.92" duration="00:13:55" routeLength="1051.24" timeLoss="00:01:27.97" maxSpeed="1.41"/>
    </personinfo>
    <personinfo id="ped39" depart="00:03:36.79" type="ped_pedestrian" speedFactor="0.99">
        <walk depart="00:03:37" departPos="0.00" arrival="00:22:28" arrivalPos="43.22" duration="00:18:51" routeLength="1327.15" timeLoss="00:02:50.46" maxSpeed="1.38"/>
    </personinfo>
    <personinfo id="ped119" depart="00:11:01.49" type="ped_pedestrian" speedFactor="1.17">
        <walk depart="00:11:02" departPos="0.00" arrival="00:22:48" arrivalPos="6.93" duration="00:11:46" routeLength="969.49" timeLoss="00:01:49.19" maxSpeed="1.62"/>
    </personinfo>
    <personinfo id="ped52" depart="00:04:49.06" type="ped_pedestrian" speedFactor="0.88">
        <walk depart="00:04:50" departPos="0.00" arrival="00:22:55" arrivalPos="77.24" duration="00:18:05" routeLength="1182.28" timeLoss="00:02:02.82" maxSpeed="1.23"/>
    </personinfo>
    <personinfo id="ped250" depart="00:23:09.69" type="ped_pedestrian" speedFactor="0.92">
        <walk depart="00:23:10" departPos="0.00" arrival="00:23:48" arrivalPos="2.83" duration="00:00:38" routeLength="43.55" timeLoss="00:00:04.06" maxSpeed="1.28"/>
    </personinfo>
    <personinfo id="ped108" depart="00:10:00.35" type="ped_pedestrian" speedFactor="0.99">
        <walk depart="00:10:01" departPos="0.00" arrival="00:23:54" arrivalPos="29.43" duration="00:13:53" routeLength="1008.75" timeLoss="00:01:42.17" maxSpeed="1.38"/>
    </personinfo>
    <personinfo id="ped70" depart="00:06:29.11" type="ped_pedestrian" speedFactor="0.98">
        <walk depart="00:06:30" departPos="0.00" arrival="00:23:59" arrivalPos="4.03" duration="00:17:29" routeLength="1261.02" timeLoss="00:02:02.06" maxSpeed="1.36"/>
    </personinfo>
    <personinfo id="ped245" depart="00:22:41.89" type="ped_pedestrian" speedFactor="1.27">
        <walk depart="00:22:42" departPos="0.00" arrival="00:24:04" arrivalPos="42.64" duration="00:01:22" routeLength="129.08" timeLoss="00:00:08.94" maxSpeed="1.77"/>
    </personinfo>
    <personinfo id="ped253" depart="00:23:26.36" type="ped_pedestrian" speedFactor="1.05">
        <walk depart="00:23:27" departPos="0.00" arrival="00:24:13" arrivalPos="52.98" duration="00:00:46" routeLength="59.40" timeLoss="00:00:05.29" maxSpeed="1.46"/>
    </personinfo>
    <personinfo id="ped62" depart="00:05:44.64" type="ped_pedestrian" speedFactor="1.01">
        <walk depart="00:05:45" departPos="0.00" arrival="00:24:15" arrivalPos="29.04" duration="00:18:30" routeLength="1362.58" timeLoss="00:02:19.33" maxSpeed="1.40"/>
    </personinfo>
    <personinfo id="ped211" depart="00:19:32.90" type="ped_pedestrian" speedFactor="1.05">
        <walk depart="00:19:33" departPos="0.00" arrival="00:24:26" arrivalPos="65.66" duration="00:04:53" routeLength="378.90" timeLoss="00:00:34.12" maxSpeed="1.46"/>
    </personinfo>
    <personinfo id="ped234" depart="00:21:40.75" type="ped_pedestrian" speedFactor="0.91">
        <walk depart="00:21:41" departPos="0.00" arrival="00:24:34" arrivalPos="60.91" duration="00:02:53" routeLength="195.17" timeLoss="00:00:18.05" maxSpeed="1.26"/>
    </personinfo>
    <personinfo id="ped107" depart="00:09:54.79" type="ped_pedestrian" speedFactor="1.06">
        <walk depart="00:09:55" departPos="0.00" arrival="00:24:36" arrivalPos="20.32" duration="00:14:41" routeLength="1160.31" timeLoss="00:01:30.10" maxSpeed="1.47"/>
    </personinfo>
    <personinfo id="ped116" depart="00:10:44.82" type="ped_pedestrian" speedFactor="0.85">
        <walk depart="00:10:45" departPos="0.00" arrival="00:24:41" arrivalPos="38.92" duration="00:13:56" routeLength="843.85" timeLoss="00:02:05.06" maxSpeed="1.19"/>
    </personinfo>
    <personinfo id="ped218" depart="00:20:11.81" type="ped_pedestrian" speedFactor="0.94">
        <walk depart="00:20:12" departPos="0.00" arrival="00:24:52" arrivalPos="58.84" duration="00:04:40" routeLength="278.17" timeLoss="00:01:08.04" maxSpeed="1.31"/>
    </personinfo>
    <personinfo id="ped118" depart="00:10:55.93" type="ped_pedestrian" speedFactor="0.93">
        <walk depart="00:10:56" departPos="0.00" arrival="00:24:53" arrivalPos="43.22" duration="00:13:57" routeLength="970.14" timeLoss="00:01:23.74" maxSpeed="1.29"/>
    </personinfo>
    <personinfo id="ped66" depart="00:06:06.88" type="ped_pedestrian" speedFactor="1.11">
        <walk depart="00:06:07" departPos="0.00" arrival="00:25:04" arrivalPos="52.16" duration="00:18:57" routeLength="1453.46" timeLoss="00:03:15.74" maxSpeed="1.54"/>
    </personinfo>
    <personinfo id="ped194" depart="00:17:58.40" type="ped_pedestrian" speedFactor="0.95">
        <walk depart="00:17:59" departPos="0.00" arrival="00:25:06" arrivalPos="43.65" duration="00:07:07" routeLength="507.75" timeLoss="00:00:44.04" maxSpeed="1.33"/>
    </personinfo>
    <personinfo id="ped88" depart="00:08:09.17" type="ped_pedestrian" speedFactor="0.94">
        <walk depart="00:08:10" departPos="0.00" arrival="00:25:17" arrivalPos="11.67" duration="00:17:07" routeLength="1175.94" timeLoss="00:02:01.56" maxSpeed="1.30"/>
    </personinfo>
    <personinfo id="ped92" depart="00:08:31.41" type="ped_pedestrian" speedFactor="0.93">
        <walk depart="00:08:32" departPos="0.00" arrival="00:25:21" arrivalPos="73.81" duration="00:16:49" routeLength="1117.97" timeLoss="00:02:23.76" maxSpeed="1.29"/>
    </personinfo>
    <personinfo id="ped159" depart="00:14:43.84" type="ped_pedestrian" speedFactor="1.05">
        <walk depart="00:14:44" departPos="0.00" arrival="00:25:32" arrivalPos="37.37" duration="00:10:48" routeLength="805.53" timeLoss="00:01:37.63" maxSpeed="1.46"/>
    </personinfo>
    <personinfo id="ped128" depart="00:11:51.52" type="ped_pedestrian" speedFactor="1.11">